# vtk DataFile Version 3.0
vtk output
ASCII
DATASET POLYDATA
POINTS 3616 float
-2 -47.5394 -72 -2.0116 -47.6259 -70.8842 -2.78317 -47.032 -71.1374 
-2.72709 -47 -72 -1 -47.6809 -72 -1.01884 -47.8874 -71.0184 
0 -47.2525 -72 -0.00176977 -47.7221 -71.002 1.00887 -47.3843 -72.0056 
1.01419 -47.4943 -70.986 2.03944 -47.4877 -72.0056 2.03966 -47.3904 -70.9687 
3 -47.4239 -72 3.02284 -47.3071 -71.1102 3.69876 -47 -72 
3.52488 -46.9264 -70.9879 -3.00594 -46.4999 -72.0056 -3.00814 -46.4322 -70.8515 
-3.10565 -45.9585 -71.1198 -3.18044 -45.9186 -72.0056 0 -46.2842 -72 
-0.073799 -46 -72 0.109489 -45.9367 -71.8492 0.813394 -46.0144 -71.8456 
1 -46.1321 -72 1.26453 -45.8755 -72.0056 3.48431 -46 -72 
3.62098 -45.9944 -70.9596 -3.40938 -45.0259 -72.0056 -3.29976 -45.028 -70.9803 
0.0208492 -45.7038 -72.0056 1.01819 -45.3255 -71.159 0.391963 -44.9791 -72.0056 
0.671562 -44.9609 -71.0955 2 -45.3037 -72 2.09447 -45.1543 -70.9955 
3 -45.4647 -72 3.02437 -45.2896 -71.047 -3.56637 -43.9899 -72.0056 
-3.41553 -43.9969 -71.0087 1.02932 -44.6171 -71.0982 0.855648 -44 -72 
1.04885 -43.8472 -71.5393 1.58203 -44.0028 -70.9365 -3.56855 -43 -72 
-3.40242 -43.0025 -70.8779 0.248171 -43 -72 0.920727 -43.0506 -71.2806 
1.23859 -43.1539 -70.9912 -3.0087 -42.3051 -71.1351 -3 -42.2397 -72 
-2.42284 -41.9776 -72.0056 -2.50939 -41.9681 -70.8734 -1 -42.1587 -72 
-1.24504 -41.974 -71.1997 -0.823894 -42.0394 -70.9198 -1.65217 -41.9793 -72.0056 
-0.124568 -42.7083 -72.0056 0.0133373 -42.4035 -70.9983 0.971595 -42.8597 -70.9353 
-1.88323 -41.8597 -71.014 -2 -41.9204 -72 -1.98883 -47.5662 -69.9035 
-2.70239 -47.0131 -70.1524 -1.01479 -47.8993 -70.0315 0.00237417 -47.825 -70.0008 
1.01661 -47.5037 -69.9733 1.95562 -47.3067 -70.0373 2.91156 -47.1064 -70.0862 
3.18267 -46.847 -70.0105 -2.98316 -46.3365 -69.8615 -3.08431 -45.9472 -70.1129 
3.60677 -46.0378 -70.0248 -3.25453 -45.0402 -69.973 1.14694 -44.906 -70.781 
1.92001 -44.9771 -70.6998 2.86341 -44.9056 -70.4993 3.79363 -45.0792 -69.96 
-3.3332 -44.0123 -70.0121 1.99645 -44.1181 -70.4928 2.3753 -44.0088 -69.9271 
3.0528 -44.5705 -69.9389 -3.37691 -42.9214 -69.9051 1.70749 -43.0217 -70.0535 
2.01841 -43.5412 -69.9337 -3.04083 -42.1797 -70.2017 -2.84322 -41.9441 -69.9984 
-1.03507 -41.9613 -70.812 -0.408367 -41.9856 -70.1385 0.0681101 -42.1013 -70.0538 
0.967583 -42.3848 -70.0029 -2.05739 -41.7173 -69.9745 -0.964904 -41.7813 -70.0003 
-1.97018 -47.5286 -68.9086 -2.63014 -46.9221 -69.0805 -1.0158 -47.9275 -69.0333 
0.00996634 -47.882 -68.9928 1.02641 -47.4301 -68.9634 2.06526 -47.2035 -69.1459 
2.90418 -47.0125 -69.7533 2.48236 -46.944 -68.8603 -2.98536 -46.1586 -69.0025 
-3.05101 -45.8901 -69.0848 3.01896 -46.609 -69.1017 3.53293 -45.9285 -68.9853 
-3.18644 -44.9614 -69.0449 4.01016 -45.1577 -69.1333 4.05775 -44.9779 -69.5995 
4.09407 -44.9776 -69.0556 -3.23188 -44.0188 -68.9997 2.9425 -44.0341 -69.4004 
3.38399 -44.0815 -68.9746 3.98502 -44.7967 -69.0428 -3.38697 -43.0757 -68.9495 
2.00757 -43.0311 -69.486 2.34009 -43.1324 -69.1334 2.94188 -43.5824 -68.9798 
-3.08059 -42.0418 -69.7112 -3.2357 -42.105 -68.962 -0.0032321 -41.9618 -69.7081 
0.836319 -41.9902 -69.3501 1.33661 -42.1157 -69.0729 2.07248 -42.6888 -68.8889 
-2.87575 -41.7508 -69.0722 -1.95618 -41.4932 -68.9523 -1.02267 -41.5227 -69.0272 
0.062168 -41.7176 -69.0139 1.02825 -41.8483 -68.8514 -1.94335 -47.4698 -67.9027 
-2.42683 -47.0223 -68.1018 -1.01713 -47.9127 -68.0299 0.0114207 -47.9222 -67.9813 
0.949287 -47.4112 -68.0367 1.88093 -47.0898 -68.0766 2.20126 -46.9351 -68.0897 
-3.01354 -45.9114 -68.6627 -2.87217 -46.0851 -67.998 2.87468 -46.3722 -68.0722 
3.2677 -45.8956 -67.8831 -3.0094 -45.452 -67.9446 -3.06509 -45.0767 -68.1699 
3.99339 -45.0738 -68.7382 3.72486 -44.9909 -68.1474 -3.1206 -43.9712 -67.9853 
3.63722 -44.0528 -67.9055 -3.3511 -42.9115 -68.1016 2.90469 -42.9854 -68.4832 
3.29453 -43.1541 -68.0235 -3.31272 -42.0238 -67.8733 1.76674 -41.9956 -68.1989 
2.17625 -42.161 -67.9413 2.93585 -42.7089 -67.977 -3.01048 -41.5346 -68.0965 
-2.04075 -41.2211 -67.9403 -1.01758 -41.2759 -68.025 -0.00913058 -41.4321 -68.0134 
1.06509 -41.6174 -67.9999 -1.90593 -47.3583 -66.894 -2.32214 -46.8885 -67.0594 
-1.01157 -47.8756 -67.0215 0.0208688 -47.8578 -66.9748 1.04431 -47.2697 -67.1384 
1.96617 -46.9578 -67.7312 1.38647 -46.9734 -66.8577 -2.77846 -45.9904 -66.9774 
2.16135 -46.6214 -67.1095 2.94937 -46.0855 -67.3948 2.80907 -45.9461 -66.8182 
-3.00735 -44.8451 -67.5129 -2.93974 -45.1258 -67.0275 3.06037 -45.7217 -67.0424 
3.39354 -44.951 -66.9801 -3.02068 -44.0195 -67.3625 -2.96051 -44.0873 -66.9101 
3.63321 -43.8937 -67.0648 -3.01712 -43.6671 -66.9133 -3.20992 -43.0062 -67.0856 
3.42199 -43.0516 -66.9973 -3.29399 -41.9181 -66.9082 1.96505 -41.9299 -67.7632 
2.40767 -42.0064 -67.0786 2.96623 -42.4484 -66.9561 -2.9432 -41.2618 -67.1578 
-2.09375 -40.9931 -67.386 -2.61772 -40.9511 -66.8713 -1.41805 -40.9916 -67.1229 
-0.940316 -41.0769 -66.9905 -0.00426259 -41.2472 -67.014 1.01189 -41.3659 -67.0061 
1.96199 -41.7335 -66.9883 -1.86548 -40.8615 -66.9194 -2.0873 -46.9728 -66.2147 
-1.88573 -47.1276 -66.0255 -1.04473 -47.706 -65.9489 -0.0571353 -47.7332 -66.056 
0.870947 -47.1879 -66.0791 1.15137 -46.9566 -65.9816 -2.05188 -46.8526 -65.8012 
-2.56358 -46.0682 -66.0985 1.92968 -46.4861 -66.0743 2.48021 -45.9742 -65.9586 
-2.76591 -44.9754 -65.9995 3.03594 -45.1476 -66.2932 2.90206 -45.1498 -65.9089 
-2.79172 -44.0399 -65.9477 3.08271 -44.8474 -65.9762 3.44172 -44.032 -66.0219 
-3.04347 -42.9719 -66.2893 -2.92438 -43.188 -66.0548 3.34603 -43.0507 -65.9902 
-3.00571 -42.6699 -65.8229 -3.18193 -42.1014 -65.9878 2.59124 -41.9944 -66.1301 
3.01329 -42.4686 -65.8649 -3.0576 -41.2734 -66.129 -2.81837 -40.9825 -65.8917 
-1.07349 -40.9756 -66.6253 -0.705027 -41.0087 -66.0427 -0.0124509 -41.1225 -65.9405 
1.01389 -41.2055 -66.0106 1.97756 -41.5603 -65.9913 -2.00835 -40.7148 -66.0515 
-1.07998 -40.8887 -65.984 -0.930697 -47.4984 -64.8674 -1.56472 -47.1102 -65.1587 
0.064632 -47.4547 -65.1507 0.918499 -47.0445 -65.6027 0.688495 -47.0512 -64.8443 
-1.96734 -46.6114 -64.8718 -2.3899 -46.002 -65.1253 1.12216 -46.8198 -65.1141 
1.90909 -46.2188 -65.0482 2.24776 -45.8383 -65.012 -2.54495 -45.0126 -64.9866 
2.79624 -44.901 -64.8634 -2.59087 -43.9845 -65.0116 3.04765 -44.4772 -65.1015 
3.23015 -43.8217 -64.9804 -2.72608 -42.9646 -64.9688 3.14659 -42.9996 -65.1085 
-2.98903 -42.1564 -65.0012 -3.05179 -42.0578 -65.1363 2.63569 -42.0405 -65.0536 
2.99591 -42.7034 -64.9534 -3.03204 -41.7325 -65.176 -2.72856 -41.087 -64.9041 
-0.420527 -41.0006 -65.1421 0.139029 -41.0501 -64.9938 1.03044 -41.0722 -64.9939 
1.97868 -41.426 -65.0067 -2.01906 -40.6575 -65.037 -0.975828 -40.8337 -64.9657 
-0.896747 -47.2731 -63.8714 -1.37559 -46.9627 -64.0741 -0.0521486 -47.3204 -64.1398 
0.50202 -47.0067 -63.8629 -1.96011 -46.3276 -63.949 -2.20755 -45.9255 -64.0574 
1.11968 -46.6392 -64.1575 1.91523 -46.0701 -64.5737 1.71411 -46.0515 -63.8496 
-2.37398 -44.9539 -64.0544 2.05346 -45.7907 -64.0701 2.5429 -45.1126 -64.0024 
-2.3903 -44.0129 -63.9908 3.01709 -44.0322 -64.2658 2.95215 -44.0472 -63.9586 
-2.49677 -43.0731 -63.9195 3.04185 -43.1661 -64.4712 2.93392 -42.9597 -64.0239 
-3.00404 -41.8952 -64.8469 -2.8237 -42.0189 -64.1179 2.60254 -42.0184 -64.0046 
-2.5417 -41.0378 -63.912 -0.0255162 -40.9916 -64.5347 0.830245 -40.9919 -64.538 
1.28083 -41.0014 -64.0649 1.96395 -41.305 -63.9563 -1.98999 -40.6754 -64.0374 
-1.01976 -40.7613 -64.0135 0.0714646 -40.9113 -64.0091 1.00244 -40.92 -63.8948 
-0.811665 -47.0718 -62.9314 -1.15316 -46.9131 -63.0821 -0.093273 -47.1653 -63.1303 
0.325293 -46.96 -62.8516 -2.03735 -45.959 -63.3496 -1.84687 -46.0713 -63.0214 
1.00575 -46.5162 -63.1472 1.52217 -45.996 -62.8697 -2.02395 -45.5881 -62.8564 
-2.17608 -45.0332 -63.035 2.04094 -45.5737 -63.13 2.50166 -44.945 -62.9799 
-2.23643 -43.9383 -63.0566 2.88339 -44.0126 -62.9947 -2.35815 -43.0052 -62.9806 
2.86992 -42.9944 -63.0024 -2.62553 -41.9766 -63.0171 2.58914 -42.0083 -63.0217 
-2.38878 -41.0601 -62.9165 1.49773 -40.9928 -63.1353 2.04624 -41.2629 -62.883 
-1.96834 -40.7234 -63.0405 -1.02018 -40.7065 -63.0128 0.00616403 -40.7949 -63.0006 
0.963122 -40.8455 -62.9889 -1.00319 -46.9348 -62.7609 -0.330817 -47.0249 -62.1382 
-0.0492179 -47.0623 -62.1559 0.14084 -46.9813 -61.9504 -0.917503 -46.7805 -61.8703 
-1.5864 -46.1296 -62.142 0.895266 -46.4347 -62.059 1.38087 -45.9558 -61.8688 
-2.02834 -45.0112 -62.1554 -1.97067 -45.1273 -61.9553 1.98302 -45.4535 -62.1181 
2.38289 -44.9422 -61.9761 -2.00827 -44.7706 -61.8778 -2.09213 -44.0435 -62.0404 
2.81684 -44.0366 -61.9915 -2.25492 -42.9376 -62.0541 2.84178 -43.0046 -62.001 
-2.45729 -41.9902 -62.0088 2.586 -41.9974 -62.0304 -2.2363 -41.0853 -61.9017 
1.64106 -40.9679 -62.1227 2.0705 -41.2097 -61.8881 -1.94672 -40.8041 -62.0354 
-1.0249 -40.6696 -62.0115 0.00551755 -40.6876 -61.9986 0.993638 -40.7679 -61.9767 
-0.0784291 -47.0267 -61.722 -0.949054 -46.6314 -60.8625 -1.51476 -45.9648 -61.1342 
0.0590415 -46.8319 -61.0708 0.96961 -46.2253 -61.0784 1.2885 -45.8608 -60.8364 
-1.83265 -45.0573 -60.9179 1.92833 -45.3159 -61.1234 2.28019 -44.8767 -60.9146 
-2.0031 -43.9777 -61.4205 -1.96389 -44.0938 -61.0025 2.81336 -43.9535 -61.0645 
-1.9964 -43.4115 -60.9201 -2.10698 -42.9923 -61.0728 2.82871 -43.0043 -60.9975 
-2.31567 -41.9007 -61.0833 2.60434 -41.9905 -61.0363 -2.10417 -41.1179 -60.9406 
1.76047 -40.9491 -61.1188 2.0962 -41.1653 -60.8841 -1.91952 -40.9015 -61.0872 
-1.02643 -40.6843 -61.0081 -0.000917287 -40.6121 -61.0016 1.00995 -40.6969 -60.9779 
-0.932837 -46.5239 -59.8569 -1.4008 -45.9674 -60.1261 -0.085122 -46.7594 -60.0649 
0.849923 -46.1904 -60.1108 1.1481 -45.8675 -59.9644 -1.76105 -44.9877 -59.9978 
1.9422 -45.1185 -60.2867 1.85149 -45.1365 -59.9396 -1.89735 -44.0347 -59.9382 
2.08565 -44.9211 -59.9741 2.68942 -44.0827 -60.0298 -2.02226 -42.9385 -60.412 
-1.97316 -43.1499 -60.0609 2.82654 -43.0043 -60.0053 -2.02937 -42.7502 -59.8606 
-2.18049 -42.0256 -60.0656 2.59544 -41.915 -59.9759 -2.03835 -41.2345 -60.0816 
[...]
POINT_DATA 3616
SCALARS scalars float
LOOKUP_TABLE default
0.2 0.2 0.2 0.2 0.2 0.2 0.2 0.2 0.2 
0.2 0.2 0.2 0.2 0.2 0.2 0.2 0.2 0.2 
0.2 0.2 0.2 0.2 0.2 0.2 0.2 0.2 0.2 
0.2 0.2 0.2 0.2 0.2 0.2 0.2 0.2 0.2 
0.2 0.2 0.2 0.2 0.2 0.2 0.2 0.2 0.2 
0.2 0.2 0.2 0.2 0.2 0.2 0.2 0.2 0.2 
0.2 0.2 0.2 0.2 0.2 0.2 0.2 0.2 0.2 
0.2 0.2 0.2 0.2 0.2 0.2 0.2 0.2 0.2 
0.2 0.2 0.2 0.2 0.2 0.2 0.2 0.2 0.2 
0.2 0.2 0.2 0.2 0.2 0.2 0.2 0.2 0.2 
0.2 0.2 0.2 0.2 0.2 0.2 0.2 0.2 0.2 
0.2 0.2 0.2 0.2 0.2 0.2 0.2 0.2 0.2 
0.2 0.2 0.2 0.2 0.2 0.2 0.2 0.2 0.2 
0.2 0.2 0.2 0.2 0.2 0.2 0.2 0.2 0.2 
0.2 0.2 0.2 0.2 0.2 0.2 0.2 0.2 0.2 
0.2 0.2 0.2 0.2 0.2 0.2 0.2 0.2 0.2 
0.2 0.2 0.2 0.2 0.2 0.2 0.2 0.2 0.2 
0.2 0.2 0.2 0.2 0.2 0.2 0.2 0.2 0.2 
0.2 0.2 0.2 0.2 0.2 0.2 0.2 0.2 0.2 
0.2 0.2 0.2 0.2 0.2 0.2 0.2 0.2 0.2 
0.2 0.2 0.2 0.2 0.2 0.2 0.2 0.2 0.2 
0.2 0.2 0.2 0.2 0.2 0.2 0.2 0.2 0.2 
0.2 0.2 0.2 0.2 0.2 0.2 0.2 0.2 0.2 
0.2 0.2 0.2 0.2 0.2 0.2 0.2 0.2 0.2 
0.2 0.2 0.2 0.2 0.2 0.2 0.2 0.2 0.2 
0.2 0.2 0.2 0.2 0.2 0.2 0.2 0.2 0.2 
0.2 0.2 0.2 0.2 0.2 0.2 0.2 0.2 0.2 
0.2 0.2 0.2 0.2 0.2 0.2 0.2 0.2 0.2 
0.2 0.2 0.2 0.2 0.2 0.2 0.2 0.2 0.2 
0.2 0.2 0.2 0.2 0.2 0.2 0.2 0.2 0.2 
0.2 0.2 0.2 0.2 0.2 0.2 0.2 0.2 0.2 
0.2 0.2 0.2 0.2 0.2 0.2 0.2 0.2 0.2 
0.2 0.2 0.2 0.2 0.2 0.2 0.2 0.2 0.2 
0.2 0.2 0.2 0.2 0.2 0.2 0.2 0.2 0.2 
0.2 0.2 0.2 0.2 0.2 0.2 0.2 0.2 0.2 
0.2 0.2 0.2 0.2 0.2 0.2 0.2 0.2 0.2 
0.2 0.2 0.2 0.2 0.2 0.2 0.2 0.2 0.2 
0.2 0.2 0.2 0.2 0.2 0.2 0.2 0.2 0.2 
0.2 0.2 0.2 0.2 0.2 0.2 0.2 0.2 0.2 
0.2 0.2 0.2 0.2 0.2 0.2 0.2 0.2 0.2 
0.2 0.2 0.2 0.2 0.2 0.2 0.2 0.2 0.2 
0.2 0.2 0.2 0.2 0.2 0.2 0.2 0.2 0.2 
0.2 0.2 0.2 0.2 0.2 0.2 0.2 0.2 0.2 
0.2 0.2 0.2 0.2 0.2 0.2 0.2 0.2 0.2 
0.2 0.2 0.2 0.2 0.2 0.2 0.2 0.2 0.2 
0.2 0.2 0.2 0.2 0.2 0.2 0.2 0.2 0.2 
0.2 0.2 0.2 0.2 0.2 0.2 0.2 0.2 0.2 
0.2 0.2 0.2 0.2 0.2 0.2 0.2 0.2 0.2 
0.2 0.2 0.2 0.2 0.2 0.2 0.2 0.2 0.2 
0.2 0.2 0.2 0.2 0.2 0.2 0.2 0.2 0.2 
0.2 0.2 0.2 0.2 0.2 0.2 0.2 0.2 0.2 
0.2 0.2 0.2 0.2 0.2 0.2 0.2 0.2 0.2 
0.2 0.2 0.2 0.2 0.2 0.2 0.2 0.2 0.2 
0.2 0.2 0.2 0.2 0.2 0.2 0.2 0.2 0.2 
0.2 0.2 0.2 0.2 0.2 0.2 0.2 0.2 0.2 
0.2 0.2 0.2 0.2 0.2 0.2 0.2 0.2 0.2 
0.2 0.2 0.2 0.2 0.2 0.2 0.2 0.2 0.2 
0.2 0.2 0.2 0.2 0.2 0.2 0.2 0.2 0.2 
0.2 0.2 0.2 0.2 0.2 0.2 0.2 0.2 0.2 
0.2 0.2 0.2 0.2 0.2 0.2 0.2 0.2 0.2 
0.2 0.2 0.2 0.2 0.2 0.2 0.2 0.2 0.2 
0.2 0.2 0.2 0.2 0.2 0.2 0.2 0.2 0.2 
0.2 0.2 0.2 0.2 0.2 0.2 0.2 0.2 0.2 
0.2 0.2 0.2 0.2 0.2 0.2 0.2 0.2 0.2 
0.2 0.2 0.2 0.2 0.2 0.2 0.2 0.2 0.2 
0.2 0.2 0.2 0.2 0.2 0.2 0.2 0.2 0.2 
0.2 0.2 0.2 0.2 0.2 0.2 0.2 0.2 0.2 
0.2 0.2 0.2 0.2 0.2 0.2 0.2 0.2 0.2 
0.2 0.2 0.2 0.2 0.2 0.2 0.2 0.2 0.2 
0.2 0.2 0.2 0.2 0.2 0.2 0.2 0.2 0.2 
0.2 0.2 0.2 0.2 0.2 0.2 0.2 0.2 0.2 
0.2 0.2 0.2 0.2 0.2 0.2 0.2 0.2 0.2 
0.2 0.2 0.2 0.2 0.2 0.2 0.2 0.2 0.2 
0.2 0.2 0.2 0.2 0.2 0.2 0.2 0.2 0.2 
0.2 0.2 0.2 0.2 0.2 0.2 0.2 0.2 0.2 
0.2 0.2 0.2 0.2 0.2 0.2 0.2 0.2 0.2 
0.2 0.2 0.2 0.2 0.2 0.2 0.2 0.2 0.2 
0.2 0.2 0.2 0.2 0.2 0.2 0.2 0.2 0.2 
0.2 0.2 0.2 0.2 0.2 0.2 0.2 0.2 0.2 
0.2 0.2 0.2 0.2 0.2 0.2 0.2 0.2 0.2 
0.2 0.2 0.2 0.2 0.2 0.2 0.2 0.2 0.2 
0.2 0.2 0.2 0.2 0.2 0.2 0.2 0.2 0.2 
0.2 0.2 0.2 0.2 0.2 0.2 0.2 0.2 0.2 
0.2 0.2 0.2 0.2 0.2 0.2 0.2 0.2 0.2 
0.2 0.2 0.2 0.2 0.2 0.2 0.2 0.2 0.2 
0.2 0.2 0.2 0.2 0.2 0.2 0.2 0.2 0.2 
0.2 0.2 0.2 0.2 0.2 0.2 0.2 0.2 0.2 
0.2 0.2 0.2 0.2 0.2 0.2 0.2 0.2 0.2 
0.2 0.2 0.2 0.2 0.2 0.2 0.2 0.2 0.2 
0.2 0.2 0.2 0.2 0.2 0.2 0.2 0.2 0.2 
0.2 0.2 0.2 0.2 0.2 0.2 0.2 0.2 0.2 
0.2 0.2 0.2 0.2 0.2 0.2 0.2 0.2 0.2 
0.2 0.2 0.2 0.2 0.2 0.2 0.2 0.2 0.2 
0.2 0.2 0.2 0.2 0.2 0.2 0.2 0.2 0.2 
0.2 0.2 0.2 0.2 0.2 0.2 0.2 0.2 0.2 
0.2 0.2 0.2 0.2 0.2 0.2 0.2 0.2 0.2 
0.2 0.2 0.2 0.2 0.2 0.2 0.2 0.2 0.2 
0.2 0.2 0.2 0.2 0.2 0.2 0.2 0.2 0.2 
0.2 0.2 0.2 0.2 0.2 0.2 0.2 0.2 0.2 
0.2 0.2 0.2 0.2 0.2 0.2 0.2 0.2 0.2 
0.2 0.2 0.2 0.2 0.2 0.2 0.2 0.2 0.2 
0.2 0.2 0.2 0.2 0.2 0.2 0.2 0.2 0.2 
0.2 0.2 0.2 0.2 0.2 0.2 0.2 0.2 0.2 
0.2 0.2 0.2 0.2 0.2 0.2 0.2 0.2 0.2 
0.2 0.2 0.2 0.2 0.2 0.2 0.2 0.2 0.2 
0.2 0.2 0.2 0.2 0.2 0.2 0.2 0.2 0.2 
0.2 0.2 0.2 0.2 0.2 0.2 0.2 0.2 0.2 
0.2 0.2 0.2 0.2 0.2 0.2 0.2 0.2 0.2 
0.2 0.2 0.2 0.2 0.2 0.2 0.2 0.2 0.2 
0.2 0.2 0.2 0.2 0.2 0.2 0.2 0.2 0.2 
0.2 0.2 0.2 0.2 0.2 0.2 0.2 0.2 0.2 
0.2 0.2 0.2 0.2 0.2 0.2 0.2 0.2 0.2 
0.2 0.2 0.2 0.2 0.2 0.2 0.2 0.2 0.2 
0.2 0.2 0.2 0.2 0.2 0.2 0.2 0.2 0.2 
0.2 0.2 0.2 0.2 0.2 0.2 0.2 0.2 0.2 
0.2 0.2 0.2 0.2 0.2 0.2 0.2 0.2 0.2 
0.2 0.2 0.2 0.2 0.2 0.2 0.2 0.2 0.2 
0.2 0.2 0.2 0.2 0.2 0.2 0.2 0.2 0.2 
0.2 0.2 0.2 0.2 0.2 0.2 0.2 0.2 0.2 
0.2 0.2 0.2 0.2 0.2 0.2 0.2 0.2 0.2 
0.2 0.2 0.2 0.2 0.2 0.2 0.2 0.2 0.2 
0.2 0.2 0.2 0.2 0.2 0.2 0.2 0.2 0.2 
0.2 0.2 0.2 0.2 0.2 0.2 0.2 0.2 0.2 
0.2 0.2 0.2 0.2 0.2 0.2 0.2 0.2 0.2 
0.2 0.2 0.2 0.2 0.2 0.2 0.2 0.2 0.2 
0.2 0.2 0.2 0.2 0.2 0.2 0.2 0.2 0.2 
0.2 0.2 0.2 0.2 0.2 0.2 0.2 0.2 0.2 
0.2 0.2 0.2 0.2 0.2 0.2 0.2 0.2 0.2 
0.2 0.2 0.2 0.2 0.2 0.2 0.2 0.2 0.2 
0.2 0.2 0.2 0.2 0.2 0.2 0.2 0.2 0.2 
0.2 0.2 0.2 0.2 0.2 0.2 0.2 0.2 0.2 
0.2 0.2 0.2 0.2 0.2 0.2 0.2 0.2 0.2 
0.2 0.2 0.2 0.2 0.2 0.2 0.2 0.2 0.2 
0.2 0.2 0.2 0.2 0.2 0.2 0.2 0.2 0.2 
0.2 0.2 0.2 0.2 0.2 0.2 0.2 0.2 0.2 
0.2 0.2 0.2 0.2 0.2 0.2 0.2 0.2 0.2 
0.2 0.2 0.2 0.2 0.2 0.2 0.2 0.2 0.2 
0.2 0.2 0.2 0.2 0.2 0.2 0.2 0.2 0.2 
0.2 0.2 0.2 0.2 0.2 0.2 0.2 0.2 0.2 
0.2 0.2 0.2 0.2 0.2 0.2 0.2 0.2 0.2 
0.2 0.2 0.2 0.2 0.2 0.2 0.2 0.2 0.2 
0.2 0.2 0.2 0.2 0.2 0.2 0.2 0.2 0.2 
0.2 0.2 0.2 0.2 0.2 0.2 0.2 0.2 0.2 
0.2 0.2 0.2 0.2 0.2 0.2 0.2 0.2 0.2 
0.2 0.2 0.2 0.2 0.2 0.2 0.2 0.2 0.2 
0.2 0.2 0.2 0.2 0.2 0.2 0.2 0.2 0.2 
0.2 0.2 0.2 0.2 0.2 0.2 0.2 0.2 0.2 
0.2 0.2 0.2 0.2 0.2 0.2 0.2 0.2 0.2 
0.2 0.2 0.2 0.2 0.2 0.2 0.2 0.2 0.2 
0.2 0.2 0.2 0.2 0.2 0.2 0.2 0.2 0.2 
0.2 0.2 0.2 0.2 0.2 0.2 0.2 0.2 0.2 
0.2 0.2 0.2 0.2 0.2 0.2 0.2 0.2 0.2 
0.2 0.2 0.2 0.2 0.2 0.2 0.2 0.2 0.2 
0.2 0.2 0.2 0.2 0.2 0.2 0.2 0.2 0.2 
0.2 0.2 0.2 0.2 0.2 0.2 0.2 0.2 0.2 
0.2 0.2 0.2 0.2 0.2 0.2 0.2 0.2 0.2 
0.2 0.2 0.2 0.2 0.2 0.2 0.2 0.2 0.2 
0.2 0.2 0.2 0.2 0.2 0.2 0.2 0.2 0.2 
0.2 0.2 0.2 0.2 0.2 0.2 0.2 0.2 0.2 
0.2 0.2 0.2 0.2 0.2 0.2 0.2 0.2 0.2 
0.2 0.2 0.2 0.2 0.2 0.2 0.2 0.2 0.2 
0.2 0.2 0.2 0.2 0.2 0.2 0.2 0.2 0.2 
0.2 0.2 0.2 0.2 0.2 0.2 0.2 0.2 0.2 
0.2 0.2 0.2 0.2 0.2 0.2 0.2 0.2 0.2 
0.2 0.2 0.2 0.2 0.2 0.2 0.2 0.2 0.2 
0.2 0.2 0.2 0.2 0.2 0.2 0.2 0.2 0.2 
0.2 0.2 0.2 0.2 0.2 0.2 0.2 0.2 0.2 
0.2 0.2 0.2 0.2 0.2 0.2 0.2 0.2 0.2 
0.2 0.2 0.2 0.2 0.2 0.2 0.2 0.2 0.2 
0.2 0.2 0.2 0.2 0.2 0.2 0.2 0.2 0.2 
0.2 0.2 0.2 0.2 0.2 0.2 0.2 0.2 0.2 
0.2 0.2 0.2 0.2 0.2 0.2 0.2 0.2 0.2 
0.2 0.2 0.2 0.2 0.2 0.2 0.2 0.2 0.2 
0.2 0.2 0.2 0.2 0.2 0.2 0.2 0.2 0.2 
0.2 0.2 0.2 0.2 0.2 0.2 0.2 0.2 0.2 
0.2 0.2 0.2 0.2 0.2 0.2 0.2 0.2 0.2 
0.2 0.2 0.2 0.2 0.2 0.2 0.2 0.2 0.2 
0.2 0.2 0.2 0.2 0.2 0.2 0.2 0.2 0.2 
0.2 0.2 0.2 0.2 0.2 0.2 0.2 0.2 0.2 
0.2 0.2 0.2 0.2 0.2 0.2 0.2 0.2 0.2 
0.2 0.2 0.2 0.2 0.2 0.2 0.2 0.2 0.2 
0.2 0.2 0.2 0.2 0.2 0.2 0.2 0.2 0.2 
0.2 0.2 0.2 0.2 0.2 0.2 0.2 0.2 0.2 
0.2 0.2 0.2 0.2 0.2 0.2 0.2 0.2 0.2 
0.2 0.2 0.2 0.2 0.2 0.2 0.2 0.2 0.2 
0.2 0.2 0.2 0.2 0.2 0.2 0.2 0.2 0.2 
0.2 0.2 0.2 0.2 0.2 0.2 0.2 0.2 0.2 
0.2 0.2 0.2 0.2 0.2 0.2 0.2 0.2 0.2 
0.2 0.2 0.2 0.2 0.2 0.2 0.2 0.2 0.2 
0.2 0.2 0.2 0.2 0.2 0.2 0.2 0.2 0.2 
0.2 0.2 0.2 0.2 0.2 0.2 0.2 0.2 0.2 
0.2 0.2 0.2 0.2 0.2 0.2 0.2 0.2 0.2 
0.2 0.2 0.2 0.2 0.2 0.2 0.2 0.2 0.2 
0.2 0.2 0.2 0.2 0.2 0.2 0.2 0.2 0.2 
0.2 0.2 0.2 0.2 0.2 0.2 0.2 0.2 0.2 
0.2 0.2 0.2 0.2 0.2 0.2 0.2 0.2 0.2 
0.2 0.2 0.2 0.2 0.2 0.2 0.2 0.2 0.2 
0.2 0.2 0.2 0.2 0.2 0.2 0.2 0.2 0.2 
0.2 0.2 0.2 0.2 0.2 0.2 0.2 0.2 0.2 
0.2 0.2 0.2 0.2 0.2 0.2 0.2 0.2 0.2 
0.2 0.2 0.2 0.2 0.2 0.2 0.2 0.2 0.2 
0.2 0.2 0.2 0.2 0.2 0.2 0.2 0.2 0.2 
0.2 0.2 0.2 0.2 0.2 0.2 0.2 0.2 0.2 
0.2 0.2 0.2 0.2 0.2 0.2 0.2 0.2 0.2 
0.2 0.2 0.2 0.2 0.2 0.2 0.2 0.2 0.2 
0.2 0.2 0.2 0.2 0.2 0.2 0.2 0.2 0.2 
0.2 0.2 0.2 0.2 0.2 0.2 0.2 0.2 0.2 
0.2 0.2 0.2 0.2 0.2 0.2 0.2 0.2 0.2 
0.2 0.2 0.2 0.2 0.2 0.2 0.2 0.2 0.2 
0.2 0.2 0.2 0.2 0.2 0.2 0.2 0.2 0.2 
0.2 0.2 0.2 0.2 0.2 0.2 0.2 0.2 0.2 
0.2 0.2 0.2 0.2 0.2 0.2 0.2 0.2 0.2 
0.2 0.2 0.2 0.2 0.2 0.2 0.2 0.2 0.2 
0.2 0.2 0.2 0.2 0.2 0.2 0.2 0.2 0.2 
0.2 0.2 0.2 0.2 0.2 0.2 0.2 0.2 0.2 
0.2 0.2 0.2 0.2 0.2 0.2 0.2 0.2 0.2 
0.2 0.2 0.2 0.2 0.2 0.2 0.2 0.2 0.2 
0.2 0.2 0.2 0.2 0.2 0.2 0.2 0.2 0.2 
0.2 0.2 0.2 0.2 0.2 0.2 0.2 0.2 0.2 
0.2 0.2 0.2 0.2 0.2 0.2 0.2 0.2 0.2 
0.2 0.2 0.2 0.2 0.2 0.2 0.2 0.2 0.2 
0.2 0.2 0.2 0.2 0.2 0.2 0.2 0.2 0.2 
0.2 0.2 0.2 0.2 0.2 0.2 0.2 0.2 0.2 
0.2 0.2 0.2 0.2 0.2 0.2 0.2 0.2 0.2 
0.2 0.2 0.2 0.2 0.2 0.2 0.2 0.2 0.2 
0.2 0.2 0.2 0.2 0.2 0.2 0.2 0.2 0.2 
0.2 0.2 0.2 0.2 0.2 0.2 0.2 0.2 0.2 
0.2 0.2 0.2 0.2 0.2 0.2 0.2 0.2 0.2 
0.2 0.2 0.2 0.2 0.2 0.2 0.2 0.2 0.2 
0.2 0.2 0.2 0.2 0.2 0.2 0.2 0.2 0.2 
0.2 0.2 0.2 0.2 0.2 0.2 0.2 0.2 0.2 
0.2 0.2 0.2 0.2 0.2 0.2 0.2 0.2 0.2 
0.2 0.2 0.2 0.2 0.2 0.2 0.2 0.2 0.2 
0.2 0.2 0.2 0.2 0.2 0.2 0.2 0.2 0.2 
0.2 0.2 0.2 0.2 0.2 0.2 0.2 0.2 0.2 
0.2 0.2 0.2 0.2 0.2 0.2 0.2 0.2 0.2 
0.2 0.2 0.2 0.2 0.2 0.2 0.2 0.2 0.2 
0.2 0.2 0.2 0.2 0.2 0.2 0.2 0.2 0.2 
0.2 0.2 0.2 0.2 0.2 0.2 0.2 0.2 0.2 
0.2 0.2 0.2 0.2 0.2 0.2 0.2 0.2 0.2 
0.2 0.2 0.2 0.2 0.2 0.2 0.2 0.2 0.2 
0.2 0.2 0.2 0.2 0.2 0.2 0.2 0.2 0.2 
0.2 0.2 0.2 0.2 0.2 0.2 0.2 0.2 0.2 
0.2 0.2 0.2 0.2 0.2 0.2 0.2 0.2 0.2 
0.2 0.2 0.2 0.2 0.2 0.2 0.2 0.2 0.2 
0.2 0.2 0.2 0.2 0.2 0.2 0.2 0.2 0.2 
0.2 0.2 0.2 0.2 0.2 0.2 0.2 0.2 0.2 
0.2 0.2 0.2 0.2 0.2 0.2 0.2 0.2 0.2 
0.2 0.2 0.2 0.2 0.2 0.2 0.2 0.2 0.2 
0.2 0.2 0.2 0.2 0.2 0.2 0.2 0.2 0.2 
0.2 0.2 0.2 0.2 0.2 0.2 0.2 0.2 0.2 
0.2 0.2 0.2 0.2 0.2 0.2 0.2 0.2 0.2 
0.2 0.2 0.2 0.2 0.2 0.2 0.2 0.2 0.2 
0.2 0.2 0.2 0.2 0.2 0.2 0.2 0.2 0.2 
0.2 0.2 0.2 0.2 0.2 0.2 0.2 0.2 0.2 
0.2 0.2 0.2 0.2 0.2 0.2 0.2 0.2 0.2 
0.2 0.2 0.2 0.2 0.2 0.2 0.2 0.2 0.2 
0.2 0.2 0.2 0.2 0.2 0.2 0.2 0.2 0.2 
0.2 0.2 0.2 0.2 0.2 0.2 0.2 0.2 0.2 
0.2 0.2 0.2 0.2 0.2 0.2 0.2 0.2 0.2 
0.2 0.2 0.2 0.2 0.2 0.2 0.2 0.2 0.2 
0.2 0.2 0.2 0.2 0.2 0.2 0.2 0.2 0.2 
0.2 0.2 0.2 0.2 0.2 0.2 0.2 0.2 0.2 
0.2 0.2 0.2 0.2 0.2 0.2 0.2 0.2 0.2 
0.2 0.2 0.2 0.2 0.2 0.2 0.2 0.2 0.2 
0.2 0.2 0.2 0.2 0.2 0.2 0.2 0.2 0.2 
0.2 0.2 0.2 0.2 0.2 0.2 0.2 0.2 0.2 
0.2 0.2 0.2 0.2 0.2 0.2 0.2 0.2 0.2 
0.2 0.2 0.2 0.2 0.2 0.2 0.2 0.2 0.2 
0.2 0.2 0.2 0.2 0.2 0.2 0.2 0.2 0.2 
0.2 0.2 0.2 0.2 0.2 0.2 0.2 0.2 0.2 
0.2 0.2 0.2 0.2 0.2 0.2 0.2 0.2 0.2 
0.2 0.2 0.2 0.2 0.2 0.2 0.2 0.2 0.2 
0.2 0.2 0.2 0.2 0.2 0.2 0.2 0.2 0.2 
0.2 0.2 0.2 0.2 0.2 0.2 0.2 0.2 0.2 
0.2 0.2 0.2 0.2 0.2 0.2 0.2 0.2 0.2 
0.2 0.2 0.2 0.2 0.2 0.2 0.2 0.2 0.2 
0.2 0.2 0.2 0.2 0.2 0.2 0.2 0.2 0.2 
0.2 0.2 0.2 0.2 0.2 0.2 0.2 0.2 0.2 
0.2 0.2 0.2 0.2 0.2 0.2 0.2 0.2 0.2 
0.2 0.2 0.2 0.2 0.2 0.2 0.2 0.2 0.2 
0.2 0.2 0.2 0.2 0.2 0.2 0.2 0.2 0.2 
0.2 0.2 0.2 0.2 0.2 0.2 0.2 0.2 0.2 
0.2 0.2 0.2 0.2 0.2 0.2 0.2 0.2 0.2 
0.2 0.2 0.2 0.2 0.2 0.2 0.2 0.2 0.2 
0.2 0.2 0.2 0.2 0.2 0.2 0.2 0.2 0.2 
0.2 0.2 0.2 0.2 0.2 0.2 0.2 0.2 0.2 
0.2 0.2 0.2 0.2 0.2 0.2 0.2 0.2 0.2 
0.2 0.2 0.2 0.2 0.2 0.2 0.2 0.2 0.2 
0.2 0.2 0.2 0.2 0.2 0.2 0.2 0.2 0.2 
0.2 0.2 0.2 0.2 0.2 0.2 0.2 0.2 0.2 
0.2 0.2 0.2 0.2 0.2 0.2 0.2 0.2 0.2 
0.2 0.2 0.2 0.2 0.2 0.2 0.2 0.2 0.2 
0.2 0.2 0.2 0.2 0.2 0.2 0.2 0.2 0.2 
0.2 0.2 0.2 0.2 0.2 0.2 0.2 0.2 0.2 
0.2 0.2 0.2 0.2 0.2 0.2 0.2 0.2 0.2 
0.2 0.2 0.2 0.2 0.2 0.2 0.2 0.2 0.2 
0.2 0.2 0.2 0.2 0.2 0.2 0.2 0.2 0.2 
0.2 0.2 0.2 0.2 0.2 0.2 0.2 0.2 0.2 
0.2 0.2 0.2 0.2 0.2 0.2 0.2 0.2 0.2 
0.2 0.2 0.2 0.2 0.2 0.2 0.2 0.2 0.2 
0.2 0.2 0.2 0.2 0.2 0.2 0.2 0.2 0.2 
0.2 0.2 0.2 0.2 0.2 0.2 0.2 0.2 0.2 
0.2 0.2 0.2 0.2 0.2 0.2 0.2 0.2 0.2 
0.2 0.2 0.2 0.2 0.2 0.2 0.2 0.2 0.2 
0.2 0.2 0.2 0.2 0.2 0.2 0.2 0.2 0.2 
0.2 0.2 0.2 0.2 0.2 0.2 0.2 0.2 0.2 
0.2 0.2 0.2 0.2 0.2 0.2 0.2 0.2 0.2 
0.2 0.2 0.2 0.2 0.2 0.2 0.2 0.2 0.2 
0.2 0.2 0.2 0.2 0.2 0.2 0.2 0.2 0.2 
0.2 0.2 0.2 0.2 0.2 0.2 0.2 0.2 0.2 
0.2 0.2 0.2 0.2 0.2 0.2 0.2 0.2 0.2 
0.2 0.2 0.2 0.2 0.2 0.2 0.2 0.2 0.2 
0.2 0.2 0.2 0.2 0.2 0.2 0.2 0.2 0.2 
0.2 0.2 0.2 0.2 0.2 0.2 0.2 0.2 0.2 
0.2 0.2 0.2 0.2 0.2 0.2 0.2 0.2 0.2 
0.2 0.2 0.2 0.2 0.2 0.2 0.2 0.2 0.2 
0.2 0.2 0.2 0.2 0.2 0.2 0.2 0.2 0.2 
0.2 0.2 0.2 0.2 0.2 0.2 0.2 0.2 0.2 
0.2 0.2 0.2 0.2 0.2 0.2 0.2 0.2 0.2 
0.2 0.2 0.2 0.2 0.2 0.2 0.2 0.2 0.2 
0.2 0.2 0.2 0.2 0.2 0.2 0.2 0.2 0.2 
0.2 0.2 0.2 0.2 0.2 0.2 0.2 0.2 0.2 
0.2 0.2 0.2 0.2 0.2 0.2 0.2 0.2 0.2 
0.2 0.2 0.2 0.2 0.2 0.2 0.2 0.2 0.2 
0.2 0.2 0.2 0.2 0.2 0.2 0.2 0.2 0.2 
0.2 0.2 0.2 0.2 0.2 0.2 0.2 0.2 0.2 
0.2 0.2 0.2 0.2 0.2 0.2 0.2 0.2 0.2 
0.2 0.2 0.2 0.2 0.2 0.2 0.2 0.2 0.2 
0.2 0.2 0.2 0.2 0.2 0.2 0.2 0.2 0.2 
0.2 0.2 0.2 0.2 0.2 0.2 0.2 0.2 0.2 
0.2 0.2 0.2 0.2 0.2 0.2 0.2 0.2 0.2 
0.2 0.2 0.2 0.2 0.2 0.2 0.2 0.2 0.2 
0.2 0.2 0.2 0.2 0.2 0.2 0.2 0.2 0.2 
0.2 0.2 0.2 0.2 0.2 0.2 0.2 0.2 0.2 
0.2 0.2 0.2 0.2 0.2 0.2 0.2 0.2 0.2 
0.2 0.2 0.2 0.2 0.2 0.2 0.2 0.2 0.2 
0.2 0.2 0.2 0.2 0.2 0.2 0.2 0.2 0.2 
0.2 0.2 0.2 0.2 0.2 0.2 0.2 0.2 0.2 
0.2 0.2 0.2 0.2 0.2 0.2 0.2 0.2 0.2 
0.2 0.2 0.2 0.2 0.2 0.2 0.2 0.2 0.2 
0.2 0.2 0.2 0.2 0.2 0.2 0.2 0.2 0.2 
0.2 0.2 0.2 0.2 0.2 0.2 0.2 0.2 0.2 
0.2 0.2 0.2 0.2 0.2 0.2 0.2 0.2 0.2 
0.2 0.2 0.2 0.2 0.2 0.2 0.2 0.2 0.2 
0.2 0.2 0.2 0.2 0.2 0.2 0.2 0.2 0.2 
0.2 0.2 0.2 0.2 0.2 0.2 0.2 0.2 0.2 
0.2 0.2 0.2 0.2 0.2 0.2 0.2 0.2 0.2 
0.2 0.2 0.2 0.2 0.2 0.2 0.2 0.2 0.2 
0.2 0.2 0.2 0.2 0.2 0.2 0.2 0.2 0.2 
0.2 0.2 0.2 0.2 0.2 0.2 0.2 0.2 0.2 
0.2 0.2 0.2 0.2 0.2 0.2 0.2 0.2 0.2 
0.2 0.2 0.2 0.2 0.2 0.2 0.2 0.2 0.2 
0.2 0.2 0.2 0.2 0.2 0.2 0.2 0.2 0.2 
0.2 0.2 0.2 0.2 0.2 0.2 0.2 0.2 0.2 
0.2 0.2 0.2 0.2 0.2 0.2 0.2 0.2 0.2 
0.2 0.2 0.2 0.2 0.2 0.2 0.2 0.2 0.2 
0.2 0.2 0.2 0.2 0.2 0.2 0.2 0.2 0.2 
0.2 0.2 0.2 0.2 0.2 0.2 0.2 0.2 0.2 
0.2 0.2 0.2 0.2 0.2 0.2 0.2 0.2 0.2 
0.2 0.2 0.2 0.2 0.2 0.2 0.2 0.2 0.2 
0.2 0.2 0.2 0.2 0.2 0.2 0.2 0.2 0.2 
0.2 0.2 0.2 0.2 0.2 0.2 0.2 0.2 0.2 
0.2 0.2 0.2 0.2 0.2 0.2 0.2 0.2 0.2 
0.2 0.2 0.2 0.2 0.2 0.2 0.2 0.2 0.2 
0.2 0.2 0.2 0.2 0.2 0.2 0.2 0.2 0.2 
0.2 0.2 0.2 0.2 0.2 0.2 0.2 0.2 0.2 
0.2 0.2 0.2 0.2 0.2 0.2 0.2 0.2 0.2 
0.2 0.2 0.2 0.2 0.2 0.2 0.2 0.2 0.2 
0.2 0.2 0.2 0.2 0.2 0.2 0.2 0.2 0.2 
0.2 0.2 0.2 0.2 0.2 0.2 0.2 0.2 0.2 
0.2 0.2 0.2 0.2 0.2 0.2 0.2 0.2 0.2 
0.2 0.2 0.2 0.2 0.2 0.2 0.2 0.2 0.2 
0.2 0.2 0.2 0.2 0.2 0.2 0.2 0.2 0.2 
0.2 0.2 0.2 0.2 0.2 0.2 0.2 0.2 0.2 
0.2 0.2 0.2 0.2 0.2 0.2 0.2 0.2 0.2 
0.2 0.2 0.2 0.2 0.2 0.2 0.2 0.2 0.2 
0.2 0.2 0.2 0.2 0.2 0.2 0.2 0.2 0.2 
0.2 0.2 0.2 0.2 0.2 0.2 0.2 0.2 0.2 
0.2 0.2 0.2 0.2 0.2 0.2 0.2 0.2 0.2 
0.2 0.2 0.2 0.2 0.2 0.2 0.2 0.2 0.2 
0.2 0.2 0.2 0.2 0.2 0.2 0.2 0.2 0.2 
0.2 0.2 0.2 0.2 0.2 0.2 0.2 0.2 0.2 
0.2 0.2 0.2 0.2 0.2 0.2 0.2 0.2 0.2 
0.2 0.2 0.2 0.2 0.2 0.2 0.2 0.2 0.2 
0.2 0.2 0.2 0.2 0.2 0.2 0.2 0.2 0.2 
0.2 0.2 0.2 0.2 0.2 0.2 0.2 0.2 0.2 
0.2 0.2 0.2 0.2 0.2 0.2 0.2 0.2 0.2 
0.2 0.2 0.2 0.2 0.2 0.2 0.2 0.2 0.2 
0.2 0.2 0.2 0.2 0.2 0.2 0.2 0.2 0.2 
0.2 0.2 0.2 0.2 0.2 0.2 0.2 0.2 0.2 
0.2 0.2 0.2 0.2 0.2 0.2 0.2 0.2 0.2 
0.2 0.2 0.2 0.2 0.2 0.2 0.2 0.2 0.2 
0.2 0.2 0.2 0.2 0.2 0.2 0.2 0.2 0.2 
0.2 0.2 0.2 0.2 0.2 0.2 0.2 0.2 0.2 
0.2 0.2 0.2 0.2 0.2 0.2 0.2 0.2 0.2 
0.2 0.2 0.2 0.2 0.2 0.2 0.2 0.2 0.2 
0.2 0.2 0.2 0.2 0.2 0.2 0.2 0.2 0.2 
0.2 0.2 0.2 0.2 0.2 0.2 0.2 0.2 0.2 
0.2 0.2 0.2 0.2 0.2 0.2 0.2 0.2 0.2 
0.2 0.2 0.2 0.2 0.2 0.2 0.2 0.2 0.2 
0.2 0.2 0.2 0.2 0.2 0.2 0.2 
NORMALS Normals float
-0.407932 -0.906615 -0.107895 -0.455245 -0.890344 0.00626939 -0.782105 -0.623102 -0.00744816 
-0.749149 -0.65835 -0.0731535 0.13187 -0.952301 -0.275198 -0.0445471 -0.993631 -0.103503 
0.150811 -0.936452 -0.316723 0.238845 -0.948708 -0.207137 -0.0426541 -0.998274 -0.0403702 
0.119202 -0.988433 -0.0937582 0.0210644 -0.994234 0.105143 0.0873217 -0.992831 0.0816137 
0.299038 -0.947086 0.116641 0.330028 -0.931269 0.154339 0.806867 -0.568782 0.159539 
0.876722 -0.441506 0.190868 -0.942286 -0.334762 0.00555422 -0.954829 -0.294356 0.0406983 
-0.973208 -0.22452 0.0495745 -0.961108 -0.267386 0.0691093 0.193176 0.457514 -0.867966 
0.642304 -0.0362808 -0.765591 0.503342 0.0757037 -0.860765 -0.170705 0.607585 -0.775693 
-0.269091 0.580899 -0.76821 -0.452454 0.59609 -0.663297 0.960381 0.277276 -0.0280546 
0.983274 0.153338 -0.0982822 -0.974313 -0.205127 0.092939 -0.983423 -0.163916 0.0775228 
0.620552 -0.26046 -0.739646 0.12461 0.736409 -0.664962 0.827706 -0.0952191 -0.553025 
0.782459 -0.0855608 -0.616796 -0.0928759 0.955983 -0.278335 0.015289 0.922715 -0.385178 
0.58377 0.798458 -0.147231 0.396661 0.84228 -0.364998 -0.98716 -0.0862918 0.134423 
-0.992843 -0.0495263 0.10867 0.6807 -0.447328 -0.580125 0.872332 -0.214757 -0.439222 
0.794068 0.135718 -0.592484 0.759796 -0.0437329 -0.648689 -0.949023 0.291332 0.120341 
-0.971263 0.232973 0.0486907 0.682383 0.500064 -0.533188 0.636615 0.546872 -0.543739 
0.723185 0.449373 -0.524469 -0.689514 0.72423 -0.00781344 -0.625908 0.778124 0.0525581 
-0.321003 0.946991 -0.0128797 -0.395143 0.909564 -0.128671 0.35191 0.916115 -0.192075 
0.206175 0.970726 -0.123216 0.294207 0.934837 -0.198801 0.214697 0.969898 -0.114908 
0.510276 0.765508 -0.391939 0.398947 0.865234 -0.303662 0.543548 0.734967 -0.405437 
0.0012609 0.993657 -0.11245 0.0623451 0.995455 -0.0719893 -0.50222 -0.86334 0.049177 
-0.791467 -0.605712 0.0818086 -0.119637 -0.992747 -0.0118632 0.221994 -0.974083 -0.0433758 
0.244153 -0.96958 0.0174167 0.18661 -0.979656 0.0738355 0.402482 -0.892958 0.201579 
0.797097 -0.55979 0.226433 -0.9446 -0.322025 0.063493 -0.978228 -0.204259 0.0367081 
0.941981 -0.331876 0.0503067 -0.989435 -0.130986 0.062137 0.484442 0.00481302 -0.87481 
0.0932509 0.597361 -0.796532 0.344254 0.707127 -0.617625 0.833466 0.350713 -0.427008 
-0.995752 -0.0481824 0.0784668 0.590576 0.314641 -0.743115 0.592016 0.582866 -0.556583 
0.511037 0.666884 -0.542316 -0.988389 0.147872 -0.0349352 0.718967 0.54094 -0.43643 
0.739847 0.455838 -0.494812 -0.771745 0.615557 -0.159683 -0.476119 0.853478 -0.211861 
0.222481 0.956556 -0.188425 0.267887 0.930751 -0.248874 0.278817 0.905304 -0.320448 
0.437797 0.805964 -0.398443 -0.124937 0.974712 -0.185275 0.182471 0.951528 -0.247587 
-0.549515 -0.834059 0.048771 -0.813594 -0.573173 0.097659 -0.171908 -0.985104 -0.00427435 
0.247215 -0.968565 -0.0276716 0.317705 -0.946655 0.0539178 0.299974 -0.94162 0.152863 
0.545395 -0.79106 0.277072 0.51588 -0.822687 0.238861 -0.943506 -0.317837 0.0936847 
-0.981129 -0.180212 0.0700618 0.675735 -0.678402 0.288364 0.841514 -0.514045 0.16617 
-0.990212 -0.0951658 0.102096 0.833253 -0.550009 -0.0563885 0.958347 0.122459 -0.258023 
0.992523 0.030844 0.118095 -0.991941 -0.0922813 0.0868168 0.574578 0.597344 -0.559501 
0.756065 0.55591 -0.345443 0.748135 0.65999 0.0686074 -0.998264 -0.0451906 0.0377816 
0.734828 0.511223 -0.445734 0.61654 0.562455 -0.550929 0.626442 0.53945 -0.56264 
-0.772946 0.608392 -0.18004 -0.920045 0.380054 -0.0952712 0.232962 0.916155 -0.326171 
0.281431 0.881096 -0.380088 0.525731 0.753202 -0.395341 0.592959 0.670176 -0.44639 
-0.440425 0.872859 -0.210102 -0.0834793 0.96832 -0.235344 0.0961351 0.965534 -0.241873 
0.188761 0.937508 -0.292313 0.332184 0.886778 -0.321369 -0.59215 -0.800756 0.0902721 
-0.782789 -0.611323 0.116297 -0.21165 -0.97657 0.0389245 0.255772 -0.966434 0.0242018 
0.405099 -0.912749 0.0527701 0.37757 -0.912618 0.156746 0.524948 -0.814772 0.246123 
-0.977049 -0.187367 0.101337 -0.932235 -0.335662 0.135161 0.651126 -0.717547 0.247308 
0.82174 -0.511342 0.251539 -0.983329 -0.13886 0.117396 -0.990304 -0.0901809 0.105669 
0.935873 -0.14521 0.321024 0.965714 -0.0209692 0.258762 -0.983187 -0.138737 0.118725 
0.990687 0.129514 -0.042006 -0.997816 -0.0361952 0.0552489 0.613393 0.605786 -0.506727 
0.836853 0.467166 -0.285364 -0.968426 0.248408 -0.0210938 0.499417 0.790444 -0.354656 
0.566369 0.746952 -0.348266 0.644336 0.698714 -0.310855 -0.633941 0.748096 -0.19614 
-0.0819689 0.947135 -0.310189 0.0924174 0.971591 -0.217875 0.154899 0.961907 -0.225258 
0.290601 0.922891 -0.252635 -0.636887 -0.755601 0.153108 -0.824789 -0.545217 0.149868 
-0.237424 -0.965919 0.103108 0.264779 -0.95884 0.102552 0.475098 -0.866181 0.154958 
0.502347 -0.82045 0.272963 0.517183 -0.827804 0.217396 -0.934574 -0.31898 0.157551 
0.566488 -0.781275 0.262109 0.703614 -0.651526 0.283621 0.745118 -0.593569 0.304098 
-0.99114 -0.0550541 0.120875 -0.979925 -0.128998 0.15201 0.816213 -0.473617 0.330883 
0.918822 -0.30434 0.251283 -0.980574 -0.133056 0.144122 -0.985454 -0.0772145 0.151385 